<?xml version="1.0" encoding="UTF-8"?>

<!-- generated on 2025-11-11 22:01:47 by Eclipse SUMO GUI Version 1.19.0
<configuration xmlns:xsi="http://www.w3.org/2001/XMLSchema-instance" xsi:noNamespaceSchemaLocation="http://sumo.dlr.de/xsd/sumoConfiguration.xsd">

    <input>
        <net-file value="simple.net.xml"/>
        <route-files value="simple.rou.xml"/>
    </input>

    <output>
        <tripinfo-output value="tripinfo.xml"/>
    </output>

    <time>
        <begin value="0"/>
        <end value="1000"/>
        <step-length value="0.1"/>
    </time>

    <report>
        <log value="sumo.log"/>
    </report>

    <traci_server>
        <remote-port value="62470"/>
    </traci_server>

</configuration>
-->

<tripinfos xmlns:xsi="http://www.w3.org/2001/XMLSchema-instance" xsi:noNamespaceSchemaLocation="http://sumo.dlr.de/xsd/tripinfo_file.xsd">
    <tripinfo id="leader" depart="0.00" departLane="A0B0_0" departPos="4.60" departSpeed="0.00" departDelay="0.00" arrival="112.30" arrivalLane="A0B0_0" arrivalPos="500.00" arrivalSpeed="4.96" duration="112.30" routeLength="495.40" waitingTime="5.70" waitingCount="1" stopTime="0.00" timeLoss="13.15" rerouteNo="0" devices="tripinfo_leader" vType="leaderType" speedFactor="1.06" vaporized=""/>
    <tripinfo id="follower" depart="4.10" departLane="A0B0_0" departPos="4.60" departSpeed="0.00" departDelay="0.10" arrival="114.00" arrivalLane="A0B0_0" arrivalPos="500.00" arrivalSpeed="9.24" duration="109.90" routeLength="495.40" waitingTime="3.00" waitingCount="1" stopTime="0.00" timeLoss="71.86" rerouteNo="0" devices="tripinfo_follower" vType="car" speedFactor="0.94" vaporized=""/>
</tripinfos>
